
FAST Summary File

Predictions were generated on 16-Oct-2025 at 14:56:34 using OpenFAST, compiled as a 64-bit application using single precision at commit v3.5.0
  compiled with
    NWTC Subroutine Library
    ElastoDyn
    BeamDyn (unknown version, unknown date) [not called]
    InflowWind
    AeroDyn14 (unknown version, unknown date) [not called]
    AeroDyn
    ServoDyn
    HydroDyn (unknown version, unknown date) [not called]
    SubDyn (unknown version, unknown date) [not called]
    ExtPtfm_MCKF (unknown version, unknown date) [not called]
    MAP (unknown version, unknown date) [not called]
    FEAMooring (unknown version, unknown date) [not called]
    MoorDyn (unknown version, unknown date) [not called]
    OrcaFlexInterface (unknown version, unknown date) [not called]
    IceFloe (unknown version, unknown date) [not called]
    IceDyn (unknown version, unknown date) [not called]


Modeling a land-based turbine
Description from the FAST input file: 
  NREL90kW turbine

Interpolation order for input/output time histories: 2 (quadratic)
Number of correction iterations:  0


   Requested Time Steps  
  -------------------------------------------------
  Component          Time Step (s)    Subcycles (-)
  -----------------  ---------------  -------------
  FAST (glue code)    5.000E-03
  InflowWind          5.000E-03              1
  ElastoDyn           5.000E-03              1
  AeroDyn             5.000E-03              1
  ServoDyn            5.000E-03              1
  FAST output files   5.000E-03              1


   Requested Channels in FAST Output File(s)  
  --------------------------------------------
  Number  Name                  Units                 Generated by
  ------  --------------------  --------------------  ------------
       1  Time                  (s)                   OpenFAST
       2  Wind1VelX             (m/s)                 InflowWind
       3  Wind1VelY             (m/s)                 InflowWind
       4  Wind1VelZ             (m/s)                 InflowWind
       5  Azimuth               (deg)                 ElastoDyn
       6  NacYaw                (deg)                 ElastoDyn
       7  BldPitch1             (deg)                 ElastoDyn
       8  RotSpeed              (rpm)                 ElastoDyn
       9  GenSpeed              (rpm)                 ElastoDyn
      10  RotPwr                (kW)                  ElastoDyn
      11  YawBrTDxt             (m)                   ElastoDyn
      12  YawBrTDyt             (m)                   ElastoDyn
      13  RotThrust             (kN)                  ElastoDyn
      14  RotTorq               (kN-m)                ElastoDyn
      15  RtFldCp               (-)                   AeroDyn
      16  RtFldCq               (-)                   AeroDyn
      17  RtFldCt               (-)                   AeroDyn
      18  RtFldPwr              (W)                   AeroDyn
      19  RtArea                (m^2)                 AeroDyn
      20  RtSkew                (deg)                 AeroDyn
      21  RtSpeed               (rpm)                 AeroDyn
      22  RtTSR                 (-)                   AeroDyn
      23  RtVAvgxh              (m/s)                 AeroDyn
      24  RtVAvgyh              (m/s)                 AeroDyn
      25  RtVAvgzh              (m/s)                 AeroDyn
      26  B1N1Alpha             (deg)                 AeroDyn
      27  B1N2Alpha             (deg)                 AeroDyn
      28  B1N3Alpha             (deg)                 AeroDyn
      29  B1N4Alpha             (deg)                 AeroDyn
      30  B1N5Alpha             (deg)                 AeroDyn
      31  B1N6Alpha             (deg)                 AeroDyn
      32  B1N7Alpha             (deg)                 AeroDyn
      33  B1N8Alpha             (deg)                 AeroDyn
      34  B1N9Alpha             (deg)                 AeroDyn
      35  GenTq                 (kN-m)                ServoDyn
      36  GenPwr                (kW)                  ServoDyn
